# vtk DataFile Version 1.0
vtk file output.vtk
ASCII
DATASET POLYDATA

POINTS 6180 double
7.174000 -27.751000 -0.084000
9.034000 -27.900000 -0.054000
6.118000 -27.859000 0.920000
9.678000 -28.004000 0.999000
5.810000 -27.862000 1.826000
9.973000 -27.738000 1.932000
5.792000 -27.717000 2.727000
9.824000 -27.776000 2.987000
6.018000 -27.943000 3.593000
9.285000 -27.966000 4.070000
4.953000 -27.748000 4.800000
9.233000 -27.764000 5.029000
4.954000 -27.852000 5.629000
8.743000 -27.671000 5.812000
5.934000 -27.859000 6.790000
6.990000 -27.938000 6.856000
6.075000 -27.869000 7.754000
8.556000 -27.887000 8.087000
5.837000 -27.880000 8.822000
8.941000 -27.962000 8.926000
5.226000 -27.665000 9.917000
9.222000 -27.829000 9.932000
5.161000 -27.680000 10.796000
9.564000 -27.780000 11.051000
5.942000 -27.902000 11.721000
9.574000 -27.711000 11.844000
7.099000 -27.954000 12.622000
8.835000 -27.653000 12.770000
6.135000 -25.798000 1.024000
10.774000 -25.860000 0.964000
5.693000 -25.762000 1.840000
11.964000 -25.860000 1.925000
4.878000 -25.739000 2.999000
12.316000 -25.924000 2.827000
4.195000 -25.961000 3.864000
13.994000 -25.859000 3.909000
3.383000 -25.758000 4.999000
14.732000 -25.808000 4.941000
3.333000 -25.719000 5.859000
9.113000 -25.876000 5.860000
11.157000 -25.761000 5.901000
14.658000 -25.830000 5.713000
3.135000 -25.743000 6.722000
8.210000 -25.894000 7.034000
11.836000 -25.765000 6.893000
14.003000 -25.846000 6.781000
0.993000 -25.731000 7.870000
8.195000 -25.702000 7.945000
0.726000 -25.888000 8.659000
8.375000 -25.971000 8.612000
0.713000 -25.871000 9.754000
8.962000 -26.027000 9.763000
1.042000 -25.868000 10.653000
2.706000 -25.783000 10.924000
3.785000 -26.070000 10.736000
9.347000 -25.862000 10.665000
4.197000 -25.971000 11.572000
11.116000 -25.898000 11.926000
5.076000 -25.926000 12.593000
11.785000 -25.727000 12.844000
9.696000 -25.976000 13.764000
11.676000 -25.594000 13.834000
-0.184000 -25.776000 15.778000
4.864000 -25.821000 15.869000
-0.129000 -25.884000 16.826000
5.054000 -25.691000 16.901000
-0.044000 -25.862000 17.826000
4.741000 -25.690000 17.833000
0.159000 -25.921000 18.624000
3.040000 -26.010000 18.769000
9.781000 -23.777000 -1.220000
11.865000 -23.999000 -0.985000
9.157000 -23.755000 -0.260000
12.279000 -23.936000 -0.115000
8.725000 -23.812000 0.663000
12.636000 -23.810000 0.819000
7.170000 -23.769000 2.064000
13.937000 -24.029000 1.862000
6.795000 -23.703000 2.943000
14.997000 -23.969000 2.983000
5.989000 -23.861000 3.828000
15.807000 -23.830000 4.094000
4.884000 -23.745000 4.826000
16.489000 -23.961000 5.015000
3.771000 -23.879000 5.716000
16.503000 -23.870000 5.648000
2.980000 -23.793000 6.801000
15.874000 -23.684000 6.663000
0.706000 -23.615000 7.791000
9.218000 -23.851000 7.926000
11.867000 -24.066000 7.837000
14.264000 -23.911000 8.001000
0.031000 -23.953000 8.812000
8.790000 -24.070000 8.845000
12.674000 -24.008000 8.808000
14.173000 -23.970000 8.777000
0.008000 -23.933000 9.738000
8.804000 -23.819000 9.783000
12.257000 -23.738000 9.918000
14.592000 -23.593000 9.882000
0.912000 -23.918000 10.968000
9.106000 -23.785000 10.846000
11.855000 -23.811000 10.727000
13.115000 -23.802000 11.073000
1.580000 -23.907000 11.936000
12.746000 -23.767000 11.993000
1.863000 -24.071000 12.804000
12.905000 -23.848000 12.993000
1.623000 -23.696000 13.693000
13.006000 -23.868000 13.993000
-0.007000 -23.813000 14.850000
6.346000 -23.956000 14.940000
7.034000 -23.906000 14.740000
12.779000 -23.825000 14.875000
-1.047000 -24.023000 15.943000
11.110000 -23.857000 16.062000
13.811000 -23.861000 15.766000
15.982000 -23.871000 16.024000
-0.967000 -23.810000 16.884000
10.757000 -23.696000 16.768000
13.749000 -23.917000 16.634000
15.887000 -23.824000 16.870000
-0.182000 -23.944000 17.964000
5.240000 -23.737000 18.010000
-0.000000 -23.862000 18.826000
4.766000 -23.826000 18.875000
-0.079000 -23.798000 19.741000
4.355000 -23.957000 19.903000
13.802000 -23.764000 19.847000
18.006000 -23.871000 20.043000
0.156000 -23.879000 20.726000
4.857000 -23.791000 20.903000
13.706000 -23.912000 20.659000
17.977000 -23.841000 20.881000
0.183000 -23.652000 21.757000
4.887000 -23.747000 21.993000
14.021000 -23.884000 21.590000
15.121000 -23.839000 21.938000
2.780000 -23.943000 22.748000
4.732000 -23.678000 22.803000
9.602000 -21.850000 -1.238000
12.170000 -22.081000 -1.179000
9.045000 -21.854000 -0.240000
12.883000 -21.982000 -0.122000
8.879000 -21.762000 0.726000
13.746000 -21.818000 0.847000
8.822000 -21.843000 1.754000
14.907000 -21.954000 2.018000
8.920000 -21.740000 2.793000
15.023000 -21.938000 2.993000
7.879000 -21.771000 3.858000
15.238000 -22.026000 3.782000
2.145000 -21.679000 4.909000
4.043000 -21.971000 4.886000
6.804000 -21.664000 4.751000
16.241000 -22.038000 4.800000
1.803000 -21.914000 5.754000
16.714000 -21.755000 5.828000
1.657000 -21.910000 6.689000
17.205000 -21.835000 6.755000
0.989000 -21.918000 7.697000
18.014000 -21.910000 7.770000
-2.180000 -21.911000 8.791000
8.904000 -21.899000 8.953000
10.715000 -22.039000 8.836000
19.017000 -21.898000 8.910000
-2.795000 -21.725000 9.804000
8.394000 -22.024000 10.019000
11.143000 -22.044000 9.735000
19.011000 -21.899000 9.919000
-2.307000 -22.025000 10.732000
8.738000 -21.948000 11.032000
11.096000 -21.889000 10.826000
15.767000 -21.865000 10.948000
16.700000 -21.908000 10.766000
18.102000 -21.861000 10.980000
-1.971000 -21.878000 11.689000
-1.283000 -21.799000 11.914000
0.057000 -21.963000 11.768000
9.270000 -22.052000 11.743000
10.694000 -21.850000 11.637000
15.329000 -21.979000 11.882000
-3.715000 -21.720000 12.862000
-1.944000 -21.852000 12.991000
0.805000 -22.005000 12.696000
17.161000 -21.946000 12.895000
-6.035000 -21.728000 13.843000
-1.413000 -21.963000 14.053000
0.978000 -21.893000 13.826000
17.756000 -21.892000 14.029000
-6.687000 -21.665000 14.713000
-1.305000 -21.872000 14.801000
0.856000 -21.862000 14.826000
18.111000 -21.984000 14.849000
-6.727000 -21.673000 15.708000
-1.684000 -21.691000 15.663000
0.781000 -21.774000 15.825000
18.995000 -21.909000 15.934000
-6.027000 -21.887000 16.700000
-1.208000 -21.854000 16.734000
0.256000 -21.813000 16.862000
19.679000 -21.880000 16.907000
-4.996000 -21.955000 17.795000
20.105000 -21.862000 17.826000
-4.336000 -22.023000 18.802000
20.157000 -21.762000 18.726000
-4.609000 -21.652000 19.727000
19.758000 -21.876000 19.754000
-4.112000 -21.766000 20.890000
19.539000 -21.619000 20.856000
-2.958000 -21.879000 21.705000
19.053000 -21.932000 21.822000
-0.138000 -22.041000 22.827000
7.035000 -21.762000 23.064000
11.716000 -21.881000 22.877000
17.767000 -21.820000 22.914000
3.984000 -21.814000 23.983000
6.710000 -21.699000 23.806000
12.028000 -21.955000 23.726000
17.206000 -21.930000 24.022000
12.232000 -21.815000 24.659000
17.180000 -21.895000 24.905000
12.275000 -21.816000 25.659000
17.594000 -21.706000 25.892000
12.410000 -21.856000 26.579000
17.538000 -21.613000 26.695000
9.844000 -19.853000 -1.187000
12.078000 -19.983000 -1.193000
9.145000 -19.898000 -0.036000
15.659000 -19.975000 0.012000
9.075000 -19.887000 1.040000
16.181000 -19.883000 0.861000
9.551000 -19.953000 2.049000
16.593000 -19.711000 2.024000
9.902000 -19.962000 2.926000
16.353000 -20.090000 2.951000
0.884000 -19.742000 3.795000
2.868000 -19.882000 3.875000
9.807000 -19.696000 3.717000
16.715000 -19.883000 3.901000
-0.936000 -19.847000 4.916000
17.327000 -19.980000 4.830000
-1.300000 -19.661000 5.865000
18.010000 -19.977000 5.904000
-1.874000 -19.877000 6.958000
18.373000 -20.030000 6.777000
-2.719000 -19.758000 7.934000
19.042000 -19.934000 7.689000
-3.784000 -19.832000 8.941000
19.805000 -20.029000 8.873000
-4.216000 -19.862000 9.826000
19.797000 -19.739000 9.862000
-4.352000 -19.761000 10.703000
20.001000 -19.962000 10.926000
-4.124000 -20.075000 11.687000
20.108000 -19.762000 11.726000
-5.940000 -19.768000 12.784000
11.054000 -19.658000 12.877000
13.516000 -19.775000 13.074000
19.799000 -19.898000 12.754000
-6.768000 -19.825000 13.802000
10.251000 -19.685000 13.863000
13.692000 -19.895000 13.926000
19.686000 -19.811000 13.856000
-6.992000 -19.862000 14.826000
-1.093000 -19.852000 15.053000
0.137000 -19.965000 14.799000
9.806000 -19.749000 14.616000
13.730000 -19.767000 14.826000
20.051000 -19.962000 14.926000
-6.940000 -19.862000 15.826000
-1.172000 -19.856000 15.904000
0.552000 -20.090000 15.720000
9.887000 -19.877000 15.630000
13.599000 -19.626000 15.731000
20.075000 -19.862000 15.826000
-6.721000 -19.862000 16.701000
19.878000 -19.862000 16.826000
-5.235000 -19.988000 18.006000
13.971000 -19.729000 17.884000
14.978000 -19.844000 17.990000
19.956000 -19.850000 17.897000
-4.872000 -19.962000 18.926000
13.781000 -19.865000 18.651000
15.582000 -19.763000 18.860000
20.163000 -19.997000 18.993000
-4.915000 -19.862000 19.826000
20.272000 -20.035000 19.968000
-4.890000 -19.862000 20.759000
20.735000 -19.783000 21.051000
-4.236000 -20.029000 21.808000
-1.338000 -19.831000 21.803000
-0.331000 -19.931000 21.860000
20.953000 -19.840000 21.914000
1.185000 -19.934000 22.866000
21.760000 -19.799000 22.862000
1.896000 -19.959000 23.822000
7.954000 -19.898000 23.818000
11.107000 -19.949000 23.602000
22.730000 -19.774000 23.872000
1.919000 -19.773000 24.754000
6.872000 -19.666000 24.994000
11.611000 -20.079000 24.713000
22.763000 -19.660000 24.875000
2.189000 -19.739000 25.764000
6.691000 -19.684000 25.963000
11.321000 -19.663000 25.857000
22.143000 -19.779000 25.871000
2.756000 -19.814000 26.847000
5.103000 -19.894000 27.010000
12.221000 -19.778000 26.765000
18.080000 -19.926000 26.763000
3.240000 -19.820000 27.632000
4.216000 -19.762000 27.873000
13.857000 -17.773000 -0.210000
15.805000 -18.005000 0.026000
9.801000 -17.882000 0.796000
16.244000 -18.029000 0.874000
9.372000 -18.039000 1.768000
16.772000 -17.959000 1.900000
9.109000 -17.919000 2.661000
17.637000 -17.911000 2.996000
0.301000 -17.762000 3.903000
3.096000 -18.029000 3.744000
6.150000 -17.696000 3.848000
17.850000 -17.930000 3.838000
-0.370000 -17.757000 4.797000
18.107000 -17.791000 4.845000
[...]
POINT_DATA 6180
SCALARS Potential double
LOOKUP_TABLE default
0.659034
1.257568
0.869797
1.495288
1.261117
1.918031
0.729644
-0.122404
-0.415554
-3.005388
-0.492550
-5.312111
-1.022758
-6.259937
-3.707011
-5.456740
-6.480239
-8.265797
-8.009603
-8.690572
-5.135615
-7.061805
-3.684362
-5.918009
-4.733366
-4.789134
-6.117812
-3.878386
1.928871
4.191046
2.964775
2.500341
4.303477
1.413706
1.770574
0.587233
1.743452
-1.178392
1.192963
-3.706716
1.539512
-1.269412
0.316218
-4.658675
1.065002
1.262949
-0.717140
-4.701626
-1.342546
-5.128661
-1.382445
-2.381071
-1.752693
-2.138500
-1.974536
-0.806811
-2.119449
4.884042
-0.598822
4.870058
8.927232
2.503716
-1.511705
1.088874
-1.195392
1.285364
-3.065402
0.779412
-4.167925
-2.450636
-3.753818
-2.697816
-2.883812
-1.482217
-1.472157
0.316873
-1.124455
1.115536
-0.183701
-0.769420
2.772971
-4.178087
3.178648
-4.933630
3.248538
-4.533458
4.581242
-3.235751
-1.156014
1.159586
2.315785
2.056533
-3.032294
1.016767
2.793189
3.144246
-4.275184
1.906654
3.822959
4.494818
-4.088229
2.200871
4.653443
7.096679
-5.112798
9.645519
-4.826961
9.182498
-2.487537
4.539690
-2.991257
1.010545
1.623716
2.597182
-1.957191
2.007295
2.511017
2.166283
-0.992866
2.925323
1.873537
1.270626
0.331771
1.146152
2.234700
1.103124
4.329658
1.008771
-1.720497
0.636102
-0.200237
0.371564
-1.943891
0.942060
-2.702191
-0.282807
-1.743057
-1.743758
-0.140764
-0.968306
-0.913685
0.667038
-0.800749
3.007617
-1.119018
4.132800
-2.886600
0.522480
-4.687693
-1.487565
-2.612819
-3.161751
-2.036247
2.413445
0.809866
-5.377750
-1.254606
-3.800059
-1.127932
-0.997218
-1.274930
0.962132
-3.996215
0.901766
0.911751
3.057902
-3.290992
0.853006
1.013766
5.037850
-6.058447
1.860767
2.186758
5.234565
5.799069
7.130725
-6.011988
-7.818351
-6.027733
2.231841
2.729893
5.763407
-8.908438
-8.013236
-4.783923
6.607133
-2.807671
-9.748568
-4.413225
3.683636
-1.832387
-10.065407
-4.779740
1.892621
-1.236686
-9.436241
-3.717890
-0.142277
-2.229631
-5.585310
-3.254859
-1.847741
-4.373004
-3.053301
-0.962240
-2.806588
2.283246
-1.182055
3.111172
0.732231
2.580977
1.064335
-4.192041
-2.657050
1.257751
0.370782
-2.789646
-3.539741
2.136655
-0.186555
3.639576
-2.199398
3.533088
-4.971150
1.723618
-5.405800
-1.067087
0.646811
-1.727709
2.442614
-3.050424
1.494343
-5.796063
0.182773
-6.754254
-1.825442
-9.627759
-6.438160
-6.136019
-3.067605
-9.172003
-1.774017
-7.466769
0.577042
-2.562177
1.099817
-0.906922
2.288114
-0.989586
4.668400
-1.022647
6.710096
-1.920498
9.223419
-3.839305
9.568495
-2.190594
15.632813
17.553009
7.594543
-1.337118
15.150812
17.719689
3.136708
-0.453314
-5.673761
-4.904053
14.822953
15.803868
-0.526534
0.829077
-5.334705
-5.693421
15.634659
15.476501
-1.258453
2.913498
0.017627
4.881680
10.076181
12.070450
1.044805
6.035593
9.304839
14.353065
1.069300
7.549247
1.003765
9.166842
1.582058
10.199039
2.715013
-0.126845
1.122525
-3.545822
1.083654
-1.874703
0.003106
-0.433106
1.492946
-1.235296
-0.153458
1.094503
1.070153
-0.840096
0.756749
0.902199
0.348888
-0.190384
0.298308
0.890467
-5.701184
0.357896
0.624760
2.391853
4.087775
-7.673287
3.787873
-7.290973
1.215105
-5.532390
-1.231522
-8.006824
-9.253463
-3.622316
-1.247227
-6.289114
0.632711
-4.860989
1.816565
-3.394670
2.200777
-0.049082
3.361044
-1.211541
5.089619
-1.388147
6.478058
-1.667567
10.062034
-1.796387
8.231926
-3.096003
11.110206
17.359344
5.995679
-3.112459
11.657969
20.569881
4.237189
1.940788
7.371223
14.764306
3.418888
0.412770
10.290616
14.726113
2.732904
0.471520
12.914439
14.583555
2.087465
2.013232
13.419525
12.639442
1.237707
4.489183
10.553034
10.893347
2.184699
5.954778
8.659538
7.034534
3.341801
6.690214
7.344069
5.679128
3.194958
0.997376
3.110640
-3.628379
2.115504
-2.069724
1.640213
-0.707322
1.558116
-0.712110
0.740230
-0.692751
2.007243
0.595980
-1.329733
-0.026739
1.809265
0.548144
0.451924
1.002191
0.883163
0.040101
7.722469
-3.469537
12.346215
-5.027170
10.998072
-6.940778
5.822193
-0.606622
-2.968219
-4.063368
3.225196
0.597025
-4.036706
-4.911466
2.151472
0.849471
1.284204
-0.194228
1.001493
-0.088122
0.274172
-0.001777
-0.136547
-2.801817
1.323276
-2.821426
-3.280546
-4.690735
3.233186
-4.081909
4.335967
-4.407773
6.775256
9.563093
3.553015
-6.844740
6.790457
10.672491
2.867857
-8.469379
7.903995
10.307283
3.422843
-9.079258
8.322241
9.930699
2.643886
-3.205973
9.214852
10.334930
1.473262
-2.474824
9.754791
10.283287
-1.083419
-1.598287
9.079692
9.255317
-0.245269
0.286188
8.774215
6.224622
0.217664
1.566302
9.031217
6.167731
3.195345
0.774706
6.112682
6.399687
3.198386
1.376430
4.560752
2.695196
4.090247
4.950851
3.374991
0.952466
2.926661
-1.574196
2.340573
-1.971147
2.009564
-2.679704
1.593825
-1.695187
0.613082
0.913268
1.187747
0.636427
1.642859
0.718846
0.740301
-10.256850
3.456321
5.977001
6.950562
-10.568067
7.285651
-9.015490
10.253590
-2.840338
6.194798
2.762701
-0.927498
-3.086970
3.275326
3.176924
1.693058
3.574236
0.430650
3.621345
0.162711
2.419612
-0.234728
-1.220372
-0.634436
-0.322439
0.099297
-0.400717
0.704618
-6.825300
0.394827
-10.351988
7.782327
8.209439
0.518252
-12.745350
6.730231
9.072811
0.810725
-14.066747
4.996973
9.059906
2.184981
-11.862051
4.110034
9.445871
2.924400
-11.678135
4.301717
10.269927
2.777942
-10.363997
4.317923
9.846355
5.895607
-7.629870
3.005864
2.843888
5.362230
9.048791
8.069158
5.467491
2.860855
-4.333130
3.009291
-0.921720
3.601481
0.422595
3.404838
0.893816
3.536563
3.767395
6.630861
1.639661
1.604296
2.114266
5.048523
1.634850
-6.571323
-6.421984
3.076337
1.120709
-0.852335
-2.640897
-6.516004
-5.636147
2.842878
-4.870830
-5.615661
-3.092854
-0.853483
0.592209
1.728067
-1.218905
-0.436578
1.232686
1.106799
-0.087003
0.410200
-11.584315
-3.378575
-8.162879
0.570326
0.549617
0.520301
1.368992
-0.225035
1.745130
-1.231244
9.560378
9.747595
2.483789
-2.061220
8.956787
-2.064338
8.137508
-2.099086
5.811788
-4.639846
2.684053
-5.200810
5.950894
6.627272
4.911766
-4.614978
4.282174
-5.154924
1.025423
-5.068442
-4.656937
-0.202618
-9.270495
4.314386
4.062071
1.955561
-14.314855
4.383095
5.953160
3.362221
-16.972514
4.785152
7.150619
3.366488
-15.854728
3.700068
5.103621
3.351195
-15.222790
2.428961
2.065690
3.829183
-11.867638
2.604704
1.199984
8.106259
10.143072
4.705524
-5.204017
2.527850
-1.016398
7.474036
14.208663
5.928835
0.405225
-1.069457
3.724660
5.631569
2.673095
-2.432667
2.587867
4.007628
-0.457170
-4.796464
2.006803
3.663146
0.434131
4.868934
-3.856582
-6.657304
1.884509
3.337458
1.433134
2.012631
1.760628
2.321643
0.927929
2.919621
1.259014
0.324647
0.610038
2.550299
0.611161
0.477987
-0.383128
0.491550
0.973922
1.091448
-11.102147
-6.955397
-9.318470
-6.524336
-0.463562
-3.828832
3.487338
-3.513063
6.144328
-3.928195
2.342692
-2.413133
4.195654
-0.301698
6.743355
0.068162
3.823284
2.016304
7.005937
0.309971
7.098559
-1.249700
7.202384
-4.373506
4.169214
-4.129081
-0.081318
-2.211439
-2.805339
1.674072
-6.945112
2.255457
-9.954583
3.176994
3.057159
2.918274
-14.220997
3.281989
-12.376273
3.732979
-5.089562
4.052087
2.600806
1.473735
1.984382
5.140273
4.854282
-1.179358
1.154800
9.535991
5.060958
-4.342683
1.210151
3.619275
7.270348
10.248813
1.181486
-5.708329
0.955989
1.595224
1.512265
1.663876
1.443539
0.679559
0.800607
1.767206
0.833898
1.039212
-4.161698
-1.173259
-5.540381
-5.327255
1.225596
2.298793
1.288785
3.753840
1.420246
5.320944
3.937536
8.509205
4.727327
12.305486
4.247647
3.995162
2.240947
2.430364
-0.070820
2.640546
-2.691237
2.523278
-5.655354
2.977129
-9.200333
3.053647
-11.230994
-9.779156
-6.145081
2.900282
-2.568559
2.586247
-1.641395
3.338028
1.051698
3.920282
3.434338
4.001070
3.669829
-2.781264
-1.314383
-0.207493
0.176652
-3.286147
-2.129602
0.773705
-2.262509
1.464761
-1.833377
0.940358
1.278832
-1.595965
-3.188649
-4.640369
-7.142148
-2.470547
-3.906829
-2.987686
-6.993048
1.279867
-0.729723
1.754753
0.970075
2.355091
2.134152
0.631585
4.551816
-0.003166
2.297379
1.587035
-0.225436
4.330217
-2.433062
6.028566
-4.313743
7.743641
-3.441783
3.606209
-2.459659
0.100556
-2.153354
-1.581342
-1.148235
-1.887450
0.919787
-0.605715
1.496144
-0.649746
-0.914221
0.166434
-2.427876
0.898878
-0.415254
-0.407015
-1.707653
0.734029
-0.932657
-1.189052
-0.950775
0.782214
-10.894333
-6.990418
-10.628254
-7.860296
-7.784871
-3.551166
-1.571226
-7.451343
-5.813535
-2.618919
-0.916567
-6.275714
-2.111619
-2.267862
-0.515942
-3.371936
-1.097847
-1.441379
0.141037
-2.976987
-0.257257
-0.610110
1.063298
-1.794013
-0.138210
-0.106162
1.206890
0.617854
-0.659569
2.047756
2.512279
1.998346
-1.016586
2.899439
-1.899524
2.897747
-3.599198
0.848391
-4.680762
-1.834927
-5.737075
-3.316088
-4.285211
-1.435877
-0.364566
0.660557
0.830302
0.753245
-1.222202
-1.574331
-0.390736
-2.742866
0.932967
-4.107805
0.839740
-4.558448
-0.007821
-1.014854
-11.330723
-8.652355
-11.422819
-8.064113
-8.355955
-6.078746
-9.968689
-7.411873
-6.590060
-3.231023
-6.667412
-6.335102
-2.577464
-1.644229
-3.726862
-3.151610
0.898766
-0.411468
-2.457094
-2.778301
-1.793714
-0.477042
1.846862
-0.142775
-0.490708
-1.461798
1.502464
0.781426
-0.582729
0.845125
0.396837
0.899838
-0.508961
3.018805
2.344517
1.656129
-1.052366
1.174492
-1.145228
2.419263
1.423366
0.703539
-0.647324
1.561445
-1.952803
1.800955
0.834940
5.817334
-3.149674
-0.525448
-0.489523
0.536276
-4.377615
0.328855
-3.539411
-0.372416
-0.931558
4.334741
0.351020
-0.148557
0.204313
-4.953141
-3.031215
-1.477207
0.466173
-0.615609
5.376843
4.359487
7.140527
4.582384
4.374665
4.615346
3.276068
4.472234
2.957052
2.948224
2.871589
4.428635
3.113869
1.560136
7.658291
11.413482
8.621924
11.706874
11.766650
7.927109
-0.653273
-2.220029
-5.831899
-4.079523
0.557246
-4.801292
0.832872
-5.276936
-6.331049
-5.065471
1.024472
-6.035295
-7.453776
-4.812347
1.642585
-1.682837
-6.296485
-4.580696
-2.257797
-4.191254
-0.254486
-1.975474
-1.334546
-4.009818
-0.187840
-1.776966
-0.545644
-3.869210
1.784245
-1.773294
-0.254744
-0.986013
2.100585
-1.485580
0.473976
0.170332
3.036105
0.107566
1.176170
0.138215
0.343513
1.057884
-0.049293
-4.616236
-3.021589
3.730080
1.062379
-3.361665
0.078714
9.336415
3.184817
-1.058946
2.666115
4.601181
3.249378
1.542820
6.758178
2.558527
1.392026
1.911401
1.204877
3.752006
-0.192671
-0.726050
-3.878529
0.172707
-2.264849
-4.056577
-1.189628
-2.637905
0.172279
-4.541128
-0.708450
-1.746214
2.408519
-0.391807
4.107677
-0.188077
3.457927
1.183174
1.196799
-0.645822
3.221562
1.304002
1.814026
1.034323
1.413386
1.576721
-1.340681
2.219576
-1.398140
2.732905
-3.560329
0.750700
2.250385
2.779627
-3.570136
1.620146
3.022160
2.946646
-2.918481
2.085384
5.936747
1.884782
-0.235705
2.872777
3.163182
2.572033
1.002832
5.825629
0.624720
0.742234
3.492240
5.340093
3.231595
1.093962
-2.069871
-1.415340
-2.685301
-1.930839
2.994845
0.976883
-1.500385
-1.855185
-5.036987
-3.822898
0.382655
-0.644830
0.737165
0.840331
-2.351898
-1.253487
-4.034897
-2.240941
-7.639003
-2.070483
0.152566
3.100875
-8.167791
2.902607
-3.758805
-4.081137
-6.985756
2.196418
-4.196444
-6.519907
-8.820956
-8.850828
-7.158315
-0.094406
-3.005316
-7.673860
-4.397490
-3.233129
-1.990154
-5.545289
-3.358427
-4.570669
-1.190840
-3.720204
-1.348087
-1.885343
0.542386
-1.416367
4.067031
-3.953756
6.037109
-4.551953
2.557891
-4.021416
-1.064450
-2.179826
-4.197554
0.585398
1.150424
-0.818501
-1.409438
1.344904
2.234105
0.182480
-0.269623
1.223413
2.604731
1.366793
0.399882
1.497617
1.473408
1.685322
4.642073
5.164911
2.283447
3.629636
-4.114133
5.454538
6.221284
-1.365664
-5.293773
5.566898
6.544154
-4.405850
-0.056869
6.956782
5.802302
0.448176
-4.169898
-4.902089
1.692886
6.184205
0.722892
0.735698
-1.137494
1.003525
-1.449569
4.986115
-3.267820
6.216490
-4.370576
12.970810
-1.103886
7.857014
-0.849586
4.965284
-5.084328
3.051021
-9.519055
-5.949226
-4.910025
1.122343
-9.137504
-5.021254
-4.921435
-2.398257
-9.164671
-2.749213
-7.876568
-0.692538
-4.804856
0.529558
-2.586638
0.530159
-1.286684
0.196924
-1.238282
0.634646
-2.836569
-0.220234
-3.606862
0.181469
-1.262097
-4.009284
-4.658590
-0.020501
-0.214659
16.635238
17.672196
-0.334993
0.528076
15.554643
22.400096
-0.018016
0.977308
0.926790
0.691058
16.201944
19.207707
0.849308
2.374205
16.201934
15.922202
0.258757
3.111924
11.401599
11.232173
-0.913930
2.933348
13.117091
12.381373
-3.035172
1.324573
-0.754285
-2.596826
-5.217719
-0.763906
-5.606877
1.450485
-5.185759
3.385525
-3.026760
1.437625
-0.718341
0.914331
0.078837
1.452612
0.638553
-1.326405
-4.063707
-1.335026
-1.404737
0.872231
3.226292
-1.492060
4.301299
-1.221736
5.475251
-1.329922
5.618248
-0.505160
6.140433
0.277779
7.037065
-0.352792
3.888870
-2.831593
-0.883275
-7.669157
-2.954908
-8.627356
-0.634966
-9.148431
-0.176887
-7.388787
0.256104
-4.966447
0.475630
-3.893395
1.059256
-3.350044
1.456889
-3.585277
10.479390
8.234132
1.852271
-3.979597
9.935030
11.346181
1.680004
-8.132167
13.477963
11.965061
0.835286
-6.624559
13.086727
13.602401
0.824440
-3.244364
13.253915
11.763317
0.717060
0.072725
15.164625
6.923295
1.066570
2.038721
13.835832
5.960750
0.917266
3.452868
13.043428
6.290824
0.546580
4.585322
11.694177
5.198923
0.451705
2.957819
12.487614
5.941001
-0.738151
0.122514
8.126915
6.182251
-2.009388
1.522927
-2.599143
8.631954
6.425292
3.599993
-0.783233
2.896937
0.221326
1.196170
0.317519
3.410773
0.364636
1.932231
1.279639
-5.417768
-9.882613
-3.585281
-5.790347
-1.929362
-1.170609
-2.841804
1.061517
-2.211853
1.270912
-3.928051
0.857279
-5.287262
1.128824
-3.034077
0.603505
-0.971404
1.917689
-0.360255
0.586928
-0.153556
-0.151432
-1.013575
-2.502851
-1.465864
-2.397412
-1.735598
-1.937102
-3.830826
-2.920783
-3.950385
-1.403321
-4.310099
-0.617256
-3.581761
0.541959
-3.702594
0.984641
-4.234651
6.901315
9.014001
1.176361
-6.232349
7.825740
10.592362
1.361070
-8.324824
7.768917
9.669969
0.512759
-7.245247
11.291679
8.239628
0.266269
-6.271764
11.230084
8.442691
0.516841
-1.353560
10.189778
4.958986
0.589682
2.142345
6.960505
3.934467
0.647673
4.613270
11.312728
3.168410
1.075838
9.129435
10.861289
3.009727
1.332727
9.469131
8.801491
4.321187
1.352399
7.816497
7.604796
4.457827
6.589316
3.050402
0.790257
2.942380
1.355461
2.292559
5.481358
7.502478
0.776509
3.512565
0.646060
-0.113951
0.828038
-0.511152
-0.250098
4.244109
1.336541
3.957764
1.545783
-8.156484
-13.536491
-5.791592
-13.212293
-4.081226
-6.338028
-1.421907
-3.819904
-1.188409
-0.054525
-0.150360
1.480685
2.813229
0.725954
2.285997
0.273629
2.043036
-0.485635
1.285733
-0.838738
1.239008
-0.869144
0.257792
-4.339172
-1.863809
-5.061524
-4.427979
-4.555010
-3.958200
5.566986
2.556235
-6.915275
-4.450633
-0.661257
-3.196699
7.934775
2.710950
-0.100460
-5.098959
6.673920
3.743037
0.278588
-7.055125
8.008817
4.207787
0.743065
-8.927118
7.629918
5.301414
0.617009
-9.078671
8.195949
5.324922
-0.112021
-7.904221
9.654163
3.118685
-2.072517
-4.083815
9.976731
-0.116584
-3.311263
-1.963141
8.390370
-0.019579
-1.802719
1.860397
8.230320
1.218568
-0.354587
4.529545
7.499933
3.601030
1.078324
7.483055
8.247431
4.681348
0.904060
7.102236
8.692751
4.395787
6.677749
5.542818
0.525700
2.538333
0.219136
-0.504601
0.556588
2.984677
6.951683
5.623128
0.633435
0.251954
0.523133
2.407210
0.776452
1.780178
4.454181
6.998758
-13.040768
6.526148
-8.573628
5.120384
-0.587905
2.959609
2.146492
4.176377
0.867949
6.830257
0.471792
8.601202
0.601918
11.528004
0.405564
11.470314
4.215564
8.916158
2.713625
2.754555
1.116505
5.209432
2.437737
2.172511
-1.717377
1.803084
4.390582
1.373865
-5.366953
0.092487
3.988417
-0.050554
-6.476475
-0.554163
3.849069
-2.473359
-5.932993
-1.689891
4.104443
-3.854577
4.702841
-6.072396
6.624465
1.103286
0.127258
0.113238
0.112890
-9.763213
-1.563530
1.743633
1.567866
-11.076930
-1.187006
-9.872868
0.692465
-8.170284
3.011978
-5.405779
3.257199
-0.966610
1.845715
2.259156
0.509060
-2.946276
0.908058
-2.287805
0.649379
-1.958685
7.888767
4.767936
0.648870
-3.397623
-1.429654
3.300187
10.072955
3.102343
1.691362
-4.541306
-3.757425
3.008672
12.561794
-5.391014
-4.460609
3.276477
8.593015
3.590042
7.014711
1.896085
-4.704475
9.242498
-12.396137
13.053253
-13.376846
3.805740
-10.139845
0.436106
7.609806
0.647960
10.250955
2.844336
4.610374
5.962651
1.979462
6.963743
0.855515
8.843548
0.183730
8.261787
-1.200391
6.906738
-3.100034
5.901342
-4.864141
2.905521
-4.572092
1.157959
-3.059952
-0.634164
2.551871
3.427719
0.185966
-2.549911
2.005094
-6.031742
1.633083
-8.564364
1.258289
-8.825360
1.321853
-9.376566
0.480398
-9.789827
0.840912
-8.528306
0.480876
-7.178567
0.660919
-3.647748
0.434225
-1.376195
0.788910
-0.377993
1.345933
0.012054
1.595488
1.151517
4.830434
4.358378
-0.008153
2.087337
9.633753
2.436204
-1.810206
-2.789777
-3.903760
2.430165
14.703772
2.939708
7.482859
4.114274
4.886943
1.070633
-1.270243
4.986785
-8.396040
5.094366
-11.717961
3.095996
-11.500056
1.416607
-7.293915
1.755512
-3.718453
-2.521515
2.722160
1.873187
3.387167
1.385928
2.782773
0.995362
1.604468
1.056867
0.908273
1.397309
-0.941875
0.717165
-2.950692
1.185833
-3.599990
-0.058940
-2.811108
-3.060958
-2.663680
-6.399539
-3.797189
-6.307293
-4.343755
-4.662347
-1.685302
-3.769274
-1.618151
-2.251666
-1.946318
-0.543873
-1.728740
-1.639767
-1.454931
-4.958239
-0.509770
-4.151189
-0.073004
-3.726852
-0.177837
-3.009721
0.317599
-1.841120
1.220890
-0.528031
1.907553
0.821158
3.002788
2.362719
-0.012854
2.673994
5.567042
3.307711
3.344621
4.513405
9.658098
3.086284
2.966183
0.112232
3.506468
-1.579400
-3.557642
-3.284071
1.508380
-5.278106
0.130189
-6.869849
-3.108843
-5.648762
-3.035508
-4.875850
-2.043828
-3.716519
-1.084804
-3.601926
-0.016183
-1.481511
0.295721
-0.158272
-0.194623
-4.294945
-1.653464
-6.594158
-1.159785
-5.182943
-0.805479
2.947848
-0.868399
-0.451052
-1.517485
-1.949774
-2.625427
-2.489165
-2.939528
-3.513703
-1.862246
-5.800631
-0.506140
-5.987554
-0.269240
-5.877293
0.525659
-4.977374
1.054660
-3.616352
0.197297
-1.076545
-0.502557
0.270145
0.402230
2.395400
-0.999920
-3.657617
-0.133929
-1.018295
-3.022448
-6.001401
-5.616182
-8.247856
-1.854900
-9.786921
0.748906
-10.062826
0.492230
-9.754370
-2.039778
-10.603525
-2.744209
-10.165834
-1.230629
-9.023290
-1.475116
-5.104814
0.377241
-2.959062
-0.976681
0.088436
1.616451
0.225502
1.663274
-0.021495
1.310742
-0.043795
0.554115
0.454803
-0.073158
0.833616
0.122261
-0.834974
2.557912
2.052893
-0.337879
-2.134366
-2.395182
-3.199891
-4.535358
-4.708639
-4.180291
-8.023927
-1.129262
-10.986884
0.201391
-9.790875
1.053043
-9.890992
0.599424
-8.468949
0.163970
-2.551274
-3.034405
-0.471419
-0.361867
-1.139264
-0.912225
-3.134448
-2.167633
-4.455823
-0.214820
-4.310336
0.663170
-3.720589
2.854192
-0.647011
4.487027
-10.397469
-0.916267
-1.088897
2.996348
-9.846851
-0.296975
-1.284590
-0.624505
-9.063266
-1.035673
0.180520
0.210550
-7.851249
-6.738495
2.399094
0.325629
2.815111
0.679514
2.528334
1.004043
2.846126
0.944574
3.203883
0.006757
1.233897
-2.558658
-1.318299
-4.429578
-1.782998
-3.730332
0.043794
-2.877718
1.858009
-2.681738
2.704152
-1.993150
-8.625070
1.866162
0.219816
-1.151374
-6.970152
1.646501
-0.374861
0.057819
-4.901659
1.425107
-2.274043
4.233272
-0.387968
2.278131
0.291174
1.463832
3.173488
2.844613
4.425938
2.806906
7.677045
3.034704
6.152951
3.660900
4.947385
4.648135
4.815045
4.063291
3.875900
2.110060
2.285235
1.288428
8.359432
11.319506
7.612706
9.655030
9.869340
7.642864
-0.670226
-0.774464
-3.318545
-1.220033
-11.057598
-10.190266
-2.993003
-0.296261
-8.380479
-10.509535
1.643001
1.314165
-4.531870
-8.931907
1.917408
-1.293632
-3.860782
-7.640413
3.659609
1.772085
5.816708
5.587906
7.241474
6.669097
7.488491
6.756067
0.088411
0.481945
-1.215549
-1.626182
0.635058
1.388628
-2.007624
-3.937766
0.106543
-0.275823
-3.460798
-6.352760
0.159710
-1.206836
-6.005054
-7.188391
0.961276
-5.299558
-7.706796
-7.970148
6.116365
-8.374283
-8.370867
-6.879669
2.089300
-6.361751
-7.429549
-7.566125
0.188028
-7.003109
3.150225
-5.288768
3.165784
-1.301169
1.489517
1.770479
5.244867
9.558135
12.203334
8.622999
0.300232
3.683183
-1.467940
6.461174
-2.457116
5.172025
-3.291175
2.740795
-2.880754
0.716564
-1.524887
1.185617
-2.888128
7.568909