# vtk DataFile Version 1.0
vtk file output.vtk
ASCII
DATASET POLYDATA

POINTS 1432 double
17.325000 24.064000 36.282000
19.560000 23.989000 36.283000
16.731000 24.021000 36.838000
19.976000 24.027000 36.874000
16.543000 23.988000 37.293000
20.074000 24.027000 37.427000
16.008000 23.975000 37.903000
20.006000 24.106000 38.023000
15.647000 24.105000 38.613000
19.591000 24.035000 38.590000
15.969000 23.970000 39.095000
17.751000 23.996000 39.135000
17.769000 25.181000 33.964000
18.315000 25.144000 34.019000
17.118000 25.104000 34.480000
19.875000 25.200000 34.624000
16.198000 25.222000 35.194000
19.987000 25.182000 35.154000
16.005000 25.095000 35.657000
19.986000 25.105000 35.749000
15.708000 25.157000 36.257000
20.094000 25.125000 36.291000
15.574000 25.105000 36.818000
20.257000 25.126000 36.911000
15.340000 25.062000 37.390000
20.366000 25.080000 37.428000
15.070000 25.139000 37.964000
20.243000 25.100000 37.944000
15.004000 25.181000 38.507000
19.966000 25.219000 38.486000
15.107000 25.093000 39.016000
19.062000 25.219000 39.137000
15.457000 25.012000 39.632000
18.208000 25.253000 39.638000
16.279000 25.119000 40.226000
17.208000 25.250000 40.263000
17.692000 26.263000 32.225000
19.015000 26.252000 32.375000
16.701000 26.347000 32.902000
19.364000 26.303000 33.004000
16.201000 26.341000 33.446000
19.499000 26.212000 33.452000
16.105000 26.232000 33.961000
19.943000 26.220000 34.041000
15.105000 26.311000 34.576000
20.233000 26.268000 34.636000
14.529000 26.369000 35.100000
20.367000 26.228000 35.140000
14.335000 26.342000 35.616000
20.214000 26.237000 35.666000
14.274000 26.239000 36.179000
19.959000 26.280000 36.274000
14.037000 26.367000 36.794000
19.867000 26.189000 36.859000
14.046000 26.350000 37.286000
19.871000 26.170000 37.407000
14.413000 26.290000 37.905000
19.644000 26.234000 38.018000
14.911000 26.160000 38.539000
19.026000 26.285000 38.593000
15.173000 26.214000 39.068000
18.349000 26.255000 39.118000
15.555000 26.156000 39.643000
17.839000 26.332000 39.696000
19.518000 27.466000 28.860000
21.868000 27.368000 29.004000
18.764000 27.429000 29.401000
21.886000 27.406000 29.567000
18.257000 27.431000 29.960000
21.679000 27.435000 29.996000
17.889000 27.415000 30.550000
21.343000 27.370000 30.671000
16.729000 27.489000 31.213000
21.317000 27.397000 31.177000
16.551000 27.360000 31.658000
21.173000 27.441000 31.686000
15.628000 27.491000 32.332000
20.671000 27.503000 32.347000
15.142000 27.519000 32.831000
20.139000 27.357000 32.888000
14.870000 27.458000 33.329000
19.994000 27.397000 33.450000
14.243000 27.365000 34.027000
19.884000 27.423000 34.000000
13.835000 27.459000 34.585000
19.733000 27.517000 34.524000
13.811000 27.340000 35.114000
19.684000 27.484000 35.060000
13.808000 27.409000 35.763000
19.560000 27.450000 35.687000
13.819000 27.340000 36.348000
19.322000 27.361000 36.251000
13.787000 27.397000 36.859000
18.817000 27.357000 36.784000
13.881000 27.397000 37.423000
18.350000 27.456000 37.380000
14.232000 27.303000 38.056000
17.922000 27.428000 37.949000
21.127000 28.542000 26.554000
22.428000 28.525000 26.687000
20.673000 28.540000 27.120000
22.721000 28.584000 27.161000
19.454000 28.528000 27.744000
22.496000 28.436000 27.915000
18.897000 28.458000 28.270000
22.532000 28.487000 28.431000
18.398000 28.528000 28.864000
22.553000 28.567000 28.987000
17.327000 28.553000 29.508000
22.487000 28.477000 29.529000
16.804000 28.586000 30.032000
22.299000 28.628000 29.988000
16.535000 28.604000 30.489000
21.745000 28.628000 30.612000
15.709000 28.615000 31.230000
21.360000 28.534000 31.233000
15.061000 28.553000 31.794000
21.123000 28.628000 31.680000
14.800000 28.556000 32.288000
20.528000 28.582000 32.291000
14.623000 28.596000 32.879000
20.023000 28.524000 32.927000
14.403000 28.628000 33.409000
19.878000 28.539000 33.358000
13.798000 28.628000 34.020000
19.494000 28.519000 34.054000
13.356000 28.534000 34.629000
19.029000 28.629000 34.601000
13.261000 28.534000 35.154000
18.891000 28.502000 35.086000
13.342000 28.534000 35.672000
17.798000 28.602000 35.705000
13.762000 28.438000 36.358000
17.250000 28.610000 36.279000
14.355000 28.530000 36.936000
17.176000 28.498000 36.793000
14.968000 28.504000 37.475000
16.641000 28.528000 37.348000
19.994000 29.645000 26.030000
22.975000 29.556000 26.135000
19.114000 29.800000 26.578000
23.338000 29.584000 26.711000
18.830000 29.722000 27.069000
23.456000 29.727000 27.143000
17.781000 29.741000 27.766000
23.379000 29.715000 27.765000
17.232000 29.690000 28.371000
23.074000 29.599000 28.374000
16.709000 29.751000 28.862000
22.565000 29.712000 28.995000
16.245000 29.756000 29.464000
22.226000 29.691000 29.438000
16.073000 29.677000 29.991000
21.936000 29.715000 30.019000
15.900000 29.659000 30.506000
21.670000 29.746000 30.513000
15.368000 29.690000 31.133000
21.102000 29.641000 31.191000
14.595000 29.694000 31.830000
20.632000 29.720000 31.691000
14.430000 29.670000 32.313000
19.647000 29.746000 32.351000
14.368000 29.670000 32.882000
19.112000 29.780000 32.887000
14.363000 29.727000 33.393000
18.863000 29.689000 33.341000
14.266000 29.702000 33.952000
17.864000 29.773000 34.064000
13.815000 29.681000 34.698000
17.712000 29.641000 34.506000
13.713000 29.683000 35.249000
17.207000 29.610000 35.100000
13.836000 29.635000 35.754000
16.589000 29.597000 35.659000
19.057000 30.837000 25.551000
21.744000 30.712000 25.497000
18.767000 30.814000 26.014000
22.891000 30.761000 26.137000
18.488000 30.869000 26.613000
23.292000 30.675000 26.680000
17.956000 30.947000 27.216000
23.362000 30.751000 27.200000
17.208000 30.901000 27.746000
23.299000 30.760000 27.746000
16.806000 30.806000 28.373000
22.937000 30.860000 28.331000
16.574000 30.901000 28.857000
22.201000 30.812000 28.852000
16.026000 30.901000 29.468000
21.375000 30.910000 29.476000
15.622000 30.806000 30.084000
21.144000 30.823000 29.942000
15.518000 30.863000 30.552000
20.024000 30.874000 30.601000
15.422000 30.819000 31.062000
19.479000 30.884000 31.180000
15.014000 30.802000 31.867000
19.026000 30.900000 31.763000
14.824000 30.858000 32.408000
17.858000 30.876000 32.292000
14.829000 30.799000 32.976000
17.335000 30.828000 32.855000
15.061000 30.719000 33.459000
17.174000 30.759000 33.377000
19.977000 32.012000 24.942000
20.641000 31.815000 24.927000
18.941000 31.942000 25.506000
21.610000 31.918000 25.567000
18.550000 31.913000 26.190000
21.889000 31.923000 26.032000
18.392000 31.938000 26.607000
22.163000 31.844000 26.564000
17.847000 31.977000 27.212000
22.204000 31.898000 27.082000
17.101000 32.054000 27.816000
21.826000 32.030000 27.779000
16.800000 31.915000 28.440000
21.723000 31.907000 28.245000
16.759000 31.953000 28.961000
20.756000 31.988000 28.869000
16.591000 31.906000 29.455000
20.126000 31.970000 29.439000
16.159000 31.918000 30.166000
19.638000 31.974000 30.077000
16.088000 31.907000 30.704000
19.005000 31.926000 30.610000
16.241000 31.863000 31.185000
18.335000 31.894000 31.143000
19.475000 33.096000 26.181000
21.091000 32.985000 26.004000
19.361000 33.102000 26.726000
21.204000 33.055000 26.537000
19.485000 33.070000 27.234000
21.151000 33.021000 27.120000
15.769000 24.053000 38.149000
15.808000 23.988000 38.902000
16.390000 23.955000 37.588000
16.328000 23.990000 39.423000
17.032000 23.999000 36.582000
16.849000 23.973000 39.493000
17.580000 24.089000 36.126000
17.444000 24.004000 39.322000
18.175000 23.962000 35.991000
18.043000 23.955000 38.995000
18.743000 23.974000 35.939000
18.608000 23.999000 38.941000
19.196000 23.997000 36.033000
19.203000 24.018000 38.793000
19.806000 24.040000 36.493000
19.734000 23.951000 38.363000
15.233000 25.031000 37.660000
15.238000 25.230000 39.420000
15.903000 25.032000 36.026000
15.857000 25.165000 40.010000
16.444000 25.216000 34.994000
16.455000 25.262000 40.287000
16.944000 25.078000 34.705000
16.858000 25.156000 40.301000
17.530000 25.101000 34.161000
17.491000 25.111000 40.105000
18.054000 25.189000 33.931000
17.969000 25.064000 39.794000
18.758000 25.079000 34.142000
18.601000 25.032000 39.338000
19.311000 25.141000 34.186000
19.258000 25.068000 39.070000
19.737000 25.228000 34.367000
19.688000 25.084000 38.785000
20.336000 25.145000 37.217000
20.348000 25.032000 37.639000
14.166000 26.223000 36.585000
14.113000 26.403000 37.571000
14.775000 26.275000 34.944000
14.655000 26.380000 38.236000
15.378000 26.285000 34.463000
15.285000 26.191000 39.252000
15.877000 26.167000 34.380000
15.901000 26.284000 39.865000
16.371000 26.358000 33.196000
16.412000 26.293000 40.054000
17.000000 26.339000 32.687000
17.021000 26.194000 40.138000
17.514000 26.219000 32.431000
17.542000 26.230000 39.933000
18.176000 26.264000 32.027000
18.077000 26.265000 39.470000
18.687000 26.272000 32.079000
18.651000 26.256000 38.833000
19.261000 26.311000 32.653000
19.252000 26.276000 38.416000
19.734000 26.246000 33.736000
19.814000 26.200000 37.761000
20.335000 26.291000 34.924000
20.341000 26.178000 35.329000
14.050000 27.421000 34.222000
14.102000 27.492000 37.858000
14.676000 27.352000 33.640000
14.700000 27.492000 38.298000
15.348000 27.429000 32.694000
15.280000 27.427000 38.452000
15.854000 27.476000 32.147000
15.864000 27.449000 38.498000
16.419000 27.287000 31.953000
16.416000 27.475000 38.392000
17.005000 27.494000 31.009000
17.038000 27.399000 38.309000
17.553000 27.383000 30.853000
17.560000 27.385000 38.183000
18.134000 27.365000 30.288000
18.159000 27.396000 37.780000
18.582000 27.436000 29.560000
18.626000 27.388000 37.013000
19.172000 27.469000 29.131000
19.111000 27.408000 36.461000
19.809000 27.483000 28.664000
19.820000 27.371000 34.381000
20.447000 27.380000 28.596000
20.354000 27.353000 32.554000
21.016000 27.361000 28.464000
20.875000 27.358000 32.112000
21.537000 27.386000 28.538000
21.548000 27.443000 30.262000
13.564000 28.439000 34.278000
13.540000 28.628000 36.048000
14.129000 28.439000 33.775000
14.148000 28.658000 36.647000
14.701000 28.507000 32.751000
14.713000 28.556000 37.210000
15.336000 28.458000 31.548000
15.355000 28.492000 37.593000
[...]
POINT_DATA 1432
SCALARS Potential double
LOOKUP_TABLE default
2.400387
9.793829
2.002987
7.967660
1.652211
6.720661
2.169213
7.459567
3.117492
10.661040
4.618435
8.801613
3.012478
4.121781
1.832102
6.518291
1.163233
7.720276
1.472229
9.653118
1.856217
10.742104
2.429116
8.523236
3.134682
7.267829
4.910358
6.459736
6.758859
7.856778
6.852166
10.069564
6.109917
8.632473
6.990975
9.173493
2.159547
7.223085
0.609455
7.639634
0.322826
6.503744
0.056193
6.729020
0.748290
6.182999
1.684177
6.910112
2.261641
6.300550
2.825724
5.922493
3.762651
5.424235
4.588974
4.719410
6.048510
3.996126
9.564526
4.293006
12.928322
3.771408
9.449990
4.266916
2.615833
5.816449
2.192778
5.695889
1.867524
5.458896
1.647765
5.217439
1.066756
5.751254
0.554425
6.042741
0.469213
7.631756
0.939892
9.988582
1.130787
8.757765
1.956667
6.221434
2.712652
4.728908
2.870006
4.191135
3.130103
3.854008
3.517135
3.657240
3.952660
2.759097
4.195009
2.691427
5.176656
3.211252
2.988340
5.723018
2.655100
7.233279
1.979290
10.058394
1.179074
9.884812
0.644754
8.390460
1.221917
6.958346
1.583793
6.216731
1.561599
4.844510
1.737393
4.671197
2.047725
4.712014
2.120992
5.030300
2.291748
5.455338
2.359762
5.298394
3.187567
3.449693
3.264974
1.992892
3.347370
1.886200
3.511193
0.350996
3.799656
0.547281
3.508088
1.243016
3.750766
2.396885
1.846454
8.410763
2.217611
6.928030
2.122656
6.574735
2.021488
7.221861
1.810821
10.197628
2.258595
9.054754
2.712270
6.762102
2.894643
5.090993
3.001811
4.169169
3.290521
3.200930
3.368531
3.009126
3.273300
2.357131
3.259877
1.766179
3.196322
1.570486
3.217099
0.494227
3.506050
0.627881
3.442514
0.882653
3.532219
1.505904
1.945043
9.302268
2.073195
11.989241
3.042540
7.727492
3.613587
5.661576
3.518538
4.732990
3.370545
4.429665
3.320620
3.795696
3.773019
3.087312
3.855859
2.807982
3.874239
1.201217
3.816548
1.429553
3.890979
2.002296
3.766779
2.064441
3.589339
2.163928
3.529159
2.015943
4.928357
7.196280
4.472947
13.524105
6.423910
11.225958
6.881791
7.230420
5.713776
4.947198
4.521563
3.529222
4.276494
3.627023
4.057639
3.653410
4.076433
3.179187
4.178128
2.504067
4.093029
2.439782
4.085865
2.871647
9.208507
8.575198
11.857251
6.962692
10.875923
5.303473
2.469717
4.184798
1.605772
6.322717
2.042579
8.942364
2.509289
9.980276
4.054140
8.097963
6.653664
9.885556
9.337106
11.786743
9.895472
8.960767
3.539317
7.464803
1.813867
6.201469
1.178597
6.828282
1.837430
8.397168
2.734663
10.357118
3.637771
9.545073
4.885962
9.664406
5.724500
11.338740
6.251902
10.112940
7.612978
6.913239
3.679814
4.896905
1.181561
7.000384
0.413184
11.335929
-0.002694
7.300890
0.409159
5.287573
0.865118
4.751942
1.950888
4.388375
3.539233
4.038707
5.222593
3.745394
7.859380
3.936530
6.763443
4.643695
6.696836
6.684285
2.353593
4.611636
1.307620
5.573205
0.666156
5.741522
0.389102
5.098741
0.295908
4.169671
1.249021
2.987813
1.610606
2.890185
1.954611
2.974955
1.891196
2.622361
2.189358
3.294728
2.895473
4.824618
3.997961
8.513853
4.949446
6.934143
5.621739
5.336322
3.232638
3.653257
2.683911
3.740549
1.734171
3.916709
1.819116
3.602521
1.734744
3.271538
1.455223
2.746487
1.360187
1.936265
1.057070
0.302718
0.729640
0.738168
0.919909
1.641894
1.773201
2.439587
2.214306
4.407299
2.731171
5.467127
3.005142
5.121616
3.519171
4.641956
4.541583
5.604947
6.749651
9.001114
3.460925
3.587408
3.297330
3.483023
3.161616
2.885998
2.992552
2.306200
2.359819
1.588081
1.796925
1.001599
1.928697
0.730541
1.826530
0.597922
1.816621
1.285533
2.021800
2.329987
1.950605
2.512434
2.002943
3.000016
3.093430
2.903070
5.086500
3.661368
7.983684
5.768540
9.804037
9.308363
8.658252
9.363728
3.816799
3.449436
3.818145
2.979002
3.229648
2.436772
3.106536
1.899507
3.331622
2.134150
3.044265
2.044694
2.586156
1.907786
1.819306
1.842045
2.251074
1.241788
3.325729
1.609745
5.149732
2.422671
7.138269
3.706914
10.890521
4.307360
13.119175
4.407298
9.607583
4.447535
4.173913
4.110549
4.490674
3.868924
5.086549
3.336477
6.162016
2.855872
5.144923
2.370089
3.827738
2.265202
3.747925
2.861389
5.171860
3.332231
8.869608
3.679626
12.834486
3.742753
8.801375
4.108677
7.218485
8.216442
6.931808
5.800614
7.984561
4.769332
3.011086
4.626186
3.812049
6.505095
3.069779
7.294704
1.622710
8.355983
1.725966
7.445240
1.923792
6.867589
2.364577
7.581887
3.047245
10.062680
4.326696
9.884644
5.925086
11.111871
2.883944
7.531346
1.973700
10.531944
2.083209
12.253932
2.356520
9.419976
2.499465
6.773059
3.428232
5.553340
4.720270
5.290994
5.556686
4.811795
6.789390
4.612102
7.197990
5.182659
2.482823
4.591473
1.468044
5.059687
1.021301
5.695501
0.985133
6.282044
1.999463
6.457033
2.888221
5.903493
3.479892
4.215208
4.610872
3.831302
5.369567
3.859545
6.291466
3.174377
11.494377
3.916387
8.682841
5.907206
2.374761
3.982405
1.544287
4.220008
1.168183
4.279739
1.138074
4.410532
2.050835
4.232055
2.767160
4.210575
3.493687
3.524668
3.872998
3.043708
4.603498
3.146834
5.225733
3.452144
5.977619
5.518717
2.989022
4.094238
1.765762
4.084560
1.287153
4.031908
1.549641
3.596251
2.178155
3.257378
3.280106
2.834305
4.437119
2.222300
5.056305
1.237701
4.963520
1.460288
4.760806
2.314908
5.581131
3.930384
3.223442
3.796716
1.655828
3.664550
0.818586
3.724756
0.518344
3.954762
0.788306
3.849856
1.463625
3.247318
2.862199
2.801112
4.743173
2.223495
6.135508
1.666107
6.723097
1.848628
6.773901
2.535501
6.151370
3.791257
1.833566
3.665429
0.620376
3.652500
0.333654
3.709458
0.238304
3.382238
0.888017
2.759025
1.762955
1.974827
2.978071
1.619622
4.639979
1.711013
6.847414
2.196665
9.699595
4.041327
2.464458
3.159550
1.313897
3.269609
0.651205
3.097446
0.116815
2.707167
0.280113
2.260384
1.090938
1.694519
2.059674
1.025661
3.561479
0.413065
4.437308
0.898012
5.481522
2.497489
5.987472
5.172847
3.294263
3.448483
2.318006
3.472046
1.354246
3.419736
0.997023
2.888767
0.911618
2.211599
1.448755
1.575763
1.865162
1.189935
2.703537
0.721242
3.927726
0.815770
5.554554
1.281444
7.115114
2.648773
7.482043
4.581840
7.032210
6.437135
3.141585
3.607750
2.974774
3.561984
2.244947
3.120130
2.030555
2.502900
2.139540
1.840459
2.234892
1.019818
1.988887
0.621257
2.727945
1.063815
4.450540
1.827708
6.692930
3.168356
12.005727
4.893280
4.978598
4.035603
4.625330
3.790301
3.693053
3.590156
1.877950
3.150014
1.642022
2.491250
1.506493
2.275198
1.683929
2.308362
2.533064
2.586217
3.252336
2.931188
4.287348
3.209859
5.938832
4.064394
7.658453
6.779124
4.052325
7.325763
3.093436
6.589854
3.521866
4.741612
3.869761
3.237228
4.242032
2.808054
5.740943
3.088019
7.499833
3.491989
8.761518
4.717062
10.358224
7.202863
5.828410
8.633307
7.572080
5.917120
11.531730
3.977222
12.909464
3.733652
10.666665
5.325649
2.122395
5.360163
1.875311
5.246071
2.777208
6.150095
2.587710
11.022398
2.117309
12.417852
2.178014
9.324678
2.326556
6.845918
2.798600
7.341676
4.404999
9.530041
4.366887
13.497446
5.313634
12.455923
1.649980
3.484306
0.764199
6.156981
0.261831
6.326827
0.783927
6.722874
1.838838
7.674597
2.494981
7.939021
3.115449
6.939204
4.363212
5.837077
6.524259
5.179880
9.407496
5.921202
10.742828
6.302723
7.958086
6.515580
6.281713
6.636606
3.699126
4.386453
3.758589
5.451590
3.129538
5.766632
1.196382
7.330726
0.228893
9.310285
0.223113
10.783745
0.528994
8.726520
1.446795
6.783397
1.815835
5.866049
2.270690
5.627351
2.743040
5.348899
3.196279
4.255924
3.850167
3.911957
4.352179
3.136818
5.678421
3.189455
8.848514
3.260061
9.581628
3.091833
5.276902
3.847024
2.211924
7.808109
1.379954
7.180538
1.269147
6.405875
1.511375
5.961511
1.261346
5.322655
1.224673
5.334738
1.177570
5.685310
1.343604
6.581750
1.345258
7.926469
1.857254
6.940857
2.766082
4.881440
3.221798
3.562131
3.288673
3.196979
3.456882
2.505887
3.658057
2.266607
3.962646
2.102999
4.239622
2.292300
4.686681
3.741172
2.357132
6.311805
2.402261
6.137742
2.280172
7.236581
1.520344
10.423443
1.019569
12.522847
1.380962
10.966943
1.908339
7.828281
2.060946
6.141349
2.392537
4.725365
2.613175
3.993335
2.762915
4.033640
2.807508
3.926690
2.729329
3.110617
2.813304
3.126251
3.276259
1.673367
3.412906
1.072033
3.405776
0.649640
3.543538
0.607701
3.771818
1.275575
1.604413
9.068716
1.552653
11.884180
1.976799
7.693578
2.286250
6.049267
2.708818
5.629318
2.802877
6.136331
2.876534
6.276489
3.185186
4.740639
3.736925
4.164200
3.600174
3.110304
3.517107
2.173753
3.657920
2.062824
3.511164
2.104456
3.476797
1.815015
3.419143
1.144789
2.858687
1.299378
3.374769
5.962109
3.026837
10.502055
4.010109
9.805344
4.906866
7.897089
4.749553
5.500004
4.256682
4.087660
3.970950
3.512685
3.888829
3.624030
4.035087
3.337304
4.051968
2.426033
4.065900
1.700727
3.976116
2.022022
3.764244
2.487439
6.123684
12.221947
9.482402
12.110026
11.297514
8.440052
8.581189
5.363140
5.199880
3.903382
4.498617
4.909525
4.432291
4.729641
4.190195
3.845882
2.960760
4.135781
4.313472
5.617101
5.539892
6.329271
3.407999
5.143775
2.110770
6.007846
2.117709
7.548464
2.387928
11.438389
2.768803
13.710669
4.581901
10.748890
6.499537
10.878758
8.673690
13.690803
12.890926
12.145560
1.286569
10.030396
0.547827
6.675573
0.280706
6.040996
1.202623
6.586018
2.096555
6.544921
2.834249
6.599635
4.333327
6.372114
5.632841
6.754907
6.567413
5.457451
2.489141
5.099775
1.216102
6.465820
0.692621
9.766806
0.353657
7.824907
0.123984
5.524763
0.510579
3.966808
1.850796
3.270046
2.765684
3.033482
3.838100
3.536139
4.254395
3.366452
4.006450
5.008380
4.535535
7.944184
5.499621
6.755510
3.082398
3.599478
2.325449
4.325152
1.489189
4.928869
1.074825
4.972088
1.185763
4.644120
1.130438
3.214833
1.433319
2.461684
1.425573
1.939845
1.328724
2.104131
1.258399
2.241576
1.751026
2.780308
2.643718
5.169159
3.635036
7.717406
4.495693
6.450756
5.550367
4.969075
7.454272
5.986147
3.415529
3.736270
2.964185
3.764115
2.842409
3.380265
2.596885
2.808014
2.191110
2.176583
2.193132
1.591653
1.585696
0.865193
1.154800
0.548587
0.872044
0.745019
1.631819
1.299655
1.822528
2.309178
2.553372
3.568922
2.055632
3.800673
2.665696
4.151876
4.141656
4.244836
5.838923
5.455551
7.013247
9.248199
7.069749
9.439233
3.637801
3.185419
3.329308
2.773445
3.553377
2.134210
2.811317
1.568840
2.269963
1.231166
2.547115
1.062217
2.425980
1.297509
2.229699
1.563196
1.375969
2.082826
1.733835
2.044526
2.650127
1.995666
4.340507
2.654250
6.681623
3.463517
10.753204
5.445393
13.818599
6.918734
10.262826
6.771481
4.041243
4.326100
3.768783
3.946252
4.066269
3.440898
4.346306
2.831306
4.402532
2.540698
3.521166
2.158572
2.589971
1.867178
3.452549
1.787301
4.796562
2.087089
7.304823
2.894769
9.918150
3.720027
10.445811
3.288953
9.202684
3.647769
5.600380
4.173317
6.516546
3.821643
10.822154
3.577025
6.237267
3.406512
5.120629
4.514489
6.384097
4.275763
10.113005
3.751304
13.199464
4.229073
1.675387
5.271083
1.566579
6.082842
1.895329
7.324542
3.241483
9.473529
5.809125
14.113574
2.178937
9.817963
2.298037
12.641027
2.332544
8.797930
2.247043
6.734955
2.419899
6.246263
3.513030
6.773057
4.492385
6.570218
5.297796
6.967213
7.088086
7.493080
2.482409
5.734901
1.430192
7.027512
1.402269
7.698315
1.530703
8.510947
2.311283
8.103866
3.132532
5.863692
4.123130
4.465218
5.104172
3.733197
7.211844
3.218009
10.014123
3.594088
9.496148
4.655482
1.835694
4.401670
1.054843
4.607103
0.645947
4.996421
0.982640
5.292106
2.053487
5.074808
3.179798
4.295823
3.809259
3.830154
4.718687
3.720742
5.180713
3.727440
5.990321
3.655224
9.601955
9.235885
3.514396
4.071346
2.237589
4.268809
1.473244
4.034910
1.566781
3.825548
1.685847
3.513131
2.598089
3.372814
3.015923
3.016650
4.124694
2.701388
4.456645
2.362670
4.838773
2.455152
5.253892
3.593648
5.755828
5.583783
3.374221
3.713944
1.375393
3.976219
0.954261
4.192314
1.124747
4.001898
1.529375
3.583775
2.498286
3.201847
4.091143
2.452243
5.247979
1.931364
5.694506
1.399014
5.766103
1.922109
5.612675
2.647347
2.529802
3.678936
0.962829
3.852176
0.324199
3.808501
0.031028
3.621525
0.618703
3.175297
1.511785
2.639965
3.042514
1.901498
4.935337
1.778035
7.205991
2.047483
8.618611
2.910475
7.693388
4.680667
1.358790
3.266822
0.659676
3.557373
0.296679
3.364158
0.411242
2.908150
0.982027
2.499149
1.829627
1.613436
2.960434
1.008681
3.884963
1.230935
5.772608
2.235667
7.760338
4.454932
3.128645
3.497703
2.280042
3.443962
1.266861
3.232615
0.652637
2.745798
0.176991
2.136568
0.512367
1.458390
1.382241
1.048407
2.680396
0.793117
4.239936
0.603782
5.067387
1.237522
6.073317
2.637807
6.621111
4.725008
3.539146
3.444552
2.697059
3.479474
2.042118
3.462638
1.596821
3.007824
1.524294
2.443117
1.864651
1.799364
2.097923
0.952007
2.563052
0.260653
3.799084
0.703316
6.334392
1.540547
9.938221
2.987122
9.417313
4.568320
3.927203
3.843060
3.638209
3.452237
3.061431
3.119903
2.284318
2.457482
2.010494
1.769475
1.724651
1.603334
1.671287
1.282784
2.359346
1.633197
3.311417
2.309614
4.608780
3.750498
7.093004
4.410770
6.109667
4.293606
3.908148
4.201175
2.092482
3.970950
2.110687
3.901420
2.262764
2.929896
2.502477
2.775819
3.573672
2.745810
4.177057
3.189443
5.038229
3.340354
6.629074
4.721505
5.806275
11.914080
4.308868
8.690858
5.014318
5.579312
6.613240
3.761933
7.504656
2.968536
9.463620
3.182319
11.517440
4.548162
7.924130
5.954986
10.004722
5.626253
SCALARS NormalPotential double
LOOKUP_TABLE default
45.824268
-680.610333
18.217788
-344.688388
76.832996
-164.214354
109.922785
-297.857536
57.185172
-773.943745
-23.166261
-348.200353
6.051710
-51.258946
41.725926
-133.164748
73.475799
-181.406976
49.410200
-396.370996
16.497475
-812.202353
-24.130718
-432.590018
-29.055219
-121.738908
-163.981037
-160.252938
-332.571432
-346.369456
-314.494206
-603.438669
-181.261042
-263.914082
-224.324262
-488.880092
34.574625
-263.516577
88.746137
-315.223971
94.391806
-124.845769
121.298974
-115.040784
62.943000
-137.070369
26.607446
-94.783316
4.986262
-164.548876
-51.146271
-184.792135
-110.271238
-135.365880
-113.212920
0.223803
-158.564607
41.879102
-674.661303
22.704953
-1277.004830
65.894972
-674.299495
45.730640
6.875371
-134.609255
23.522983
-135.805933
18.442584
-129.539222
11.577774
-123.702504
54.498574
-138.281248
93.078973
-160.322287
94.652856
-218.746121
65.913199
-777.631975
50.329927
-453.704333
-30.544953
-118.209159
-89.698025
-49.033006
-95.262704
-60.353526
-95.482220
-49.985258
-93.389861
-24.773759
-115.284986
11.356877
-130.186501
-18.230912
-125.072130
-37.876728
83.535242
-47.388448
26.146959
-217.944984
28.285203
-695.118103
74.001866
-578.653299
111.339818
-300.568288
40.131381
-182.201750
18.677434
-156.877668
16.681951
-106.899917
14.798181
-74.277999
-11.813670
-82.731697
-16.617958
-152.731824
-6.965506
-218.196949
-31.745244
-126.521172
-134.949787
-0.382187
-138.910931
66.976811
-146.482099
59.831577
-141.493809
134.430414
-124.021242
122.998786
-92.208983
85.234484
-105.900778
30.429912
51.662477
-479.197622
-5.467128
-209.952598
-19.008868
-148.537976
21.778963
-259.052118
28.462527
-725.588788
5.976103
-529.856024
-44.292057
-249.997615
-95.204815
-83.066834
-115.858135
-17.440500
-119.602691
22.531771
-122.824540
19.816245
-139.290291
14.268597
-114.256508
41.906470
-65.271456
65.689190
-70.336219
130.657654
-130.954847
110.756762
-129.755874
80.353554
-122.049814
37.349801
138.079088
-297.018127
114.147172
-1048.954522
-7.666778
-324.751837
-112.630913
-74.293789
-102.507897
9.790811
-63.235075
28.359392
-70.736253
-7.921067
-135.166099
-8.232355
-145.325819
38.876436
-148.811816
125.975679
-121.996187
73.080639
-142.060684
28.442632
-131.026144
-4.970350
-130.523524
6.317873
-117.365131
19.577141
-39.330627
-251.893246
-32.361352
-1355.301610
-286.595761
-820.756900
-385.721419
-159.890886
-176.189848
12.963969
-136.019822
48.393221
-129.481798
6.767354
-117.088052
-58.186999
-106.404705
17.979752
-131.756580
30.242241
-135.915758
27.493684
-133.874953
-7.738786
-488.183701
-471.940310
-1051.977722
-219.283480
-950.565485
-45.828267
100.235440
15.088980
122.065790
-204.562880
32.317891
-579.780371
52.395645
-694.390429
-33.889554
-178.786432
-316.962270
-564.494357
-611.417361
-1102.355217
-574.113860
-491.107812
-53.931631
-318.238912
21.687115
-183.183473
76.321006
-247.885111
46.404254
-446.050585
14.801739
-857.486644
-14.502346
-623.562370
-114.465542
-323.883667
-129.394298
-901.220811
-118.341087
-782.354929
-178.655652
-109.824455
-89.370827
-124.565706
46.206528
-240.346885
85.628995
-1413.746674
132.672115
-309.606065
90.002713
-99.091055
90.452566
-34.739712
51.250434
5.681604
-31.204992
63.553900
-151.162225
30.497198
-406.727642
32.588615
-106.876805
29.573572
-100.648223
-112.986569
-54.049250
-119.169316
22.109065
-146.499180
81.208193
-194.562420
102.515074
-203.998859
114.639357
-109.295590
46.666766
-19.042999
29.145152
-30.398066
7.175227
-44.736835
25.415534
7.128952
26.184795
-3.003247
-18.573900
-72.755974
-99.646896
-434.200558
-137.088802
-172.531575
-138.274821
-106.323559
-134.422290
-142.515294
-107.616601
-112.601574
2.390504
-97.938406
9.697859
-90.657142
31.002170
-38.369073
31.783198
12.240739
27.025734
54.300983
56.246829
140.512730
87.657017
100.145847
93.932859
63.869153
44.132906
54.227645
-6.425452
-70.895877
-40.318592
-186.286157
69.505910
-127.276309
59.485697
-84.471872
4.020298
-140.480134
-96.503144
-570.533924
-113.518940
-128.010959
-127.193513
-127.536385
-142.284523
-73.252256
-105.081050
-12.256020
-11.771851
24.476779
28.687931
71.057611
21.623943
95.032402
34.224599
123.100996
16.249995
88.239700
-8.001931
22.740948
10.617764
7.752229
90.581197
11.313029
58.391396
26.451207
-136.774736
3.082422
-462.621420
-154.101031
-756.312981
-742.021127
-443.266183
-514.657091
-123.304466
-112.621012
-132.286323
-93.973718
-100.903920
-27.045734
-65.822044
21.975489
-86.411024
6.200233
-78.887906
4.063374
74.146982
21.032448
147.294658
40.943607
132.531847
108.814205
73.637365
99.081011
-34.871467
58.530776
-160.813123
-42.120962
-539.877683
-38.724474
-1145.062523
2.248832
-478.083585
27.613526
-125.115694
-133.858730
-118.982311
-138.438683
-160.137058
-95.661408
-217.336038
-27.302595
-115.193814
19.889294
18.884248
36.524949
7.056003
23.112591
-91.739929
-20.025988
-581.776082
-60.206372
-1317.055055
-33.626572
-334.944181
48.751175
-215.920345
-384.115562
-199.023377
-89.401269
-330.944276
-3.126469
80.226608
8.392864
40.121672
-183.599831
52.127029
-366.818298
107.949228
-477.263230
75.346012
-276.099272
63.583370
-206.690891
108.007417
-257.542853
80.874769
-717.549234
-8.305883
-369.762094
-127.116761
-620.518431
-81.429462
-230.788394
-3.692898
-620.323542
-25.689583
-1239.897726
-36.643241
-600.286293
-4.953650
-211.253805
-25.578860
-59.830115
-107.172806
-37.834732
-140.100935
-1.498808
-221.820971
59.142332
-258.114490
-14.845109
5.082184
-115.270591
47.175936
-137.815719
79.954485
-150.530967
92.264046
-171.493322
36.032934
-191.627310
-13.084399
-161.659835
-75.057260
-68.877368
-141.830127
-28.734200
-175.395411
-20.916506
-223.460595
77.332602
-1079.599308
69.829664
-316.942518
-65.482575
-19.410665
-125.435294
26.290228
-98.173117
45.987167
-130.103493
53.370596
-131.245415
27.289180
-116.205968
2.214798
-67.981759
-38.113445
-3.161205
-83.536834
26.611596
-137.019268
8.508672
-147.260722
-12.260254
-142.253941
-161.234081
-140.906934
-137.606456
0.494834
-141.443845
30.126389
-149.957070
24.311327
-109.711798
-7.800603
-37.674900
-71.796265
4.774295
-153.257547
41.549166
-146.651838
113.953747
-150.593205
104.549037
-141.378278
60.004115
-97.325771
5.168282
-105.299193
-128.901967
24.156874
-141.822627
72.285169
-122.067238
93.499901
-139.962759
90.121384
-146.249616
61.296843
-120.876402
-12.887567
-40.126013
-162.879259
15.047160
-302.932237
37.051533
-241.452333
41.315105
-191.479216
32.539447
-158.444436
-0.708496
22.889396
-126.168735
81.648192
-144.244420
95.839532
-143.486724
110.509146
-119.873697
79.986837
-41.869868
63.588649
28.379733
21.229180
50.141654
-82.388789
39.382115
-245.274494
36.671810
-792.786356
-84.827510
-55.357976
-105.851536
19.894765
-51.159024
60.548418
-80.518118
109.878108
-59.722541
108.654573
-5.523504
70.772410
35.998609
30.791417
84.288000
-23.237907
145.694083
-79.772552
118.346061
-119.241129
42.449619
-120.800202
-89.997324
-135.979749
-129.284026
-25.720327
-144.784978
44.058381